SMILES,Name,Tb,Tb_info
CCCCCCOC(=O)CCCCCCCCC(=O)OCCCCCC,"DECANEDIOIC ACID, DIHEXYL ESTER",,
CCCCCCCCCOC(=O)CCCCCCCCC(=O)OCCCCCCCCC,"DECANEDIOIC ACID, DINONYL ESTER",,
O=C(O)CCCCCCCCC(=O)O,DECANEDIOIC ACID,772.4477778,"563 °F at 100 mmHg (NTP, 1992)"
CCCCCCCCCC,DECANE,651.5588889,
CCCCCCCCCC(CCCCCCCC(=O)OC)C(F)(F)C(F)(F)C(F)(F)C(F)(F)C(F)(F)C(F)(F)C(F)(F)C(F)(F)F,"DECANOIC ACID, 10(9)-PERFLUOROOCTYL, METHYL ESTER",,
c1ccc2c(c1)oc1ccccc12,DIBENZOFURAN,764.67,
N#CCCOCCOc1ccc(Cl)cc1Cl,DICHLOROPHENOXY-BETA-CYANOETHYL ETHER,,
CCCCOCCOCCOCCCC,"DIETHYLENE GLYCOL, DIBUTYL ETHER",733.5588889,
CCOCCOCCOCC,"DIETHYLENE GLYCOL, DIETHYL ETHER",666.3366667,
OCCOCCO,DIETHYLENE GLYCOL,722.4477778,
C1COOC1,DIOXOLANE,,
CCCCCCCCCCCCCCCCCCCCCC,DOCOSANE,846.0588889,
CCCCCCCCCCCC(=O)N(CC)CC,"DODECANAMIDE, N,N-DIETHYL",,
NCCCCCCCCCCCCN,"DODECANE, 1,12-DIAMINO",,
CCCCCCCCCCCCc1ccccc1,"DODECANE, 1-PHENYL",808.4477778,
N#CCCCCCCCCCCC#N,"DODECANEDIOIC ACID, DINITRILE",,
CCCCCCCCCCCC,DODECANE,693.7255556,
CCCCCCCCCCCCCCCCCCC(CCCCCCCCCCCCCCCCCC)CCCCC(CCCCCCCCCCCCCCCCCC)CCCCCCCCCCCCCCCCCC,"DOTETRACONTANE, 19,24-DIOCTADECYL",,
CCCCCCCCCCCCCCCCCCCCCCCCCCCCCCCC,DOTRIACONTANE,740.15,
CCCCCCCCCCCCCCCCCCCC,EICOSANE,820.17,
CC[Te]CC,"ETHANE, 1,1'-TELLUROBIS",,
FCC(F)(F)F,"ETHANE, 1,1,1,2-TETRAFLUORO",247.15,
CC(Cl)(Cl)Cl,"ETHANE, 1,1,1-TRICHLORO",551.5588889,
BrC(Br)C(Br)Br,"ETHANE, 1,1,2,2-TETRABROMO",721.3366667,
ClC(Cl)C(Cl)Cl,"ETHANE, 1,1,2,2-TETRACHLORO",623.5588889,
FC(F)(Cl)C(F)(Cl)Cl,"ETHANE, 1,1,2-TRICHLORO, 1,2,2-TRIFLUORO",525.17,
ClCC(Cl)Cl,"ETHANE, 1,1,2-TRICHLORO",590.2255556,
CC(Cl)Cl,"ETHANE, 1,1-DICHLORO",534.7255556,
CCOC(C)OCC,"ETHANE, 1,1-DIETHOXY",579.67,
CC(F)F,"ETHANE, 1,1-DIFLUORO",488.7255556,
CC(c1ccccc1)c1ccccc1,"ETHANE, 1,1-DIPHENYL",545.75,
N#CCCNCCNCCC#N,"ETHANE, 1,2-DIAMINO-BIS-(DI-2-CYANOETHYL) ETHER",,
NCCN,"ETHANE, 1,2-DIAMINO",593.5588889,
BrCCBr,"ETHANE, 1,2-DIBROMO",404.75,
ClCCCl,"ETHANE, 1,2-DICHLORO",560.9477778,
COCCOC,"ETHANE, 1,2-DIMETHOXY",562.4477778,
c1ccc(CCc2ccccc2)cc1,"ETHANE, 1,2-DIPHENYL",557.15,
FC(F)(F)C(Cl)Br,"ETHANE, 1-BROMO, 1-CHLORO, 2,2,2-TRIFLUORO",527.67,
FC(Cl)C(F)(F)Br,"ETHANE, 1-BROMO, 2-CHLORO, 1,1,2-TRIFLUORO",325.65,
CCBr,"ETHANE, BROMO",515.8366667,
CCCl,"ETHANE, CHLORO",489.7255556,
CC[N+](=O)[O-],"ETHANE, NITRO",592.4477778,
OCC(F)(F)F,"ETHANOL, 2,2,2-TRIFLUORO",347.15,
NCCO,"ETHANOL, 2-AMINO",647.4477778,
OCCCl,"ETHANOL, 2-CHLORO",605.2255556,
OCCS,"ETHANOL, 2-MERCAPTO",431.15,
COCCO,"ETHANOL, 2-METHOXY",602.4477778,"257 °F at 768 mmHg (NTP, 1992)"
O=[N+]([O-])CCO,"ETHANOL, 2-NITRO",671.3366667,"381 °F at 765 mmHg (NTP, 1992)"
OCCc1ccccc1,"ETHANOL, 2-PHENYL",491.35,
CCO,ETHANOL,555.9477778,"173.3 °F at 760 mmHg (NTP, 1992)"
CC(=O)c1cccc2ccccc12,"ETHANONE, 1-(1-NAPHTHALENYL)",570.15,
C=C(Cl)Cl,"ETHENE, 1,1-DICHLORO",509.17,
Cl/C=C\Cl,"ETHENE, 1,2-DICHLORO(CIS)",537.4477778,
Cl/C=C/Cl,"ETHENE, 1,2-DICHLORO(TRANS)",524.67,"117 °F at 745 mmHg (NTP, 1992)"
C=CBr,"ETHENE, BROMO",493.2255556,
ClC(Cl)=C(Cl)Cl,"ETHENE, TETRACHLORO",598.5588889,
ClC=C(Cl)Cl,"ETHENE, TRICHLORO",564.67,
Fc1c(F)c(F)c(Oc2c(F)c(F)c(F)c(F)c2F)c(F)c1F,"ETHER, BIS(PENTAFLUOROPHENYL)",,
Fc1c(F)c(C(F)(F)F)c(F)c(F)c1Oc1c(F)c(F)c(C(F)(F)F)c(F)c1F,"ETHER, BIS[2,3,5,6-TETRAFLUORO-4-(TRIFLUOROMETHYL)]",,
c1ccc(COCc2ccccc2)cc1,"ETHER, DIBENZYL",775.2255556,
CCCCOCCCC,"ETHER, DIBUTYL",619.67,
CCOCC,"ETHER, DIETHYL",512.0588889,
CC(C)OC(C)C,"ETHER, DIISOPROPYL",546.3366667,
COC,"ETHER, DIMETHYL",455.2255556,
CCCCCCCCOCCCCCCCC,"ETHER, DIOCTYL",777.4477778,
c1ccc(Oc2ccccc2)cc1,"ETHER, DIPHENYL",735.3755556,
CCCOCCC,"ETHER, DIPROPYL",363.15,
CCC(C)(C)OC,"ETHER, METHYL TERT.PENTYL",359.45,
CCOC(C)(C)C,"ETHER, TERT. BUTYL ETHYL",550.5588889,
COC(C)(C)C,"ETHER, TERT.BUTYL METHYL",532.67,
COCCN,"ETHYLAMINE, 2-METHOXY",368.15,
C(#Cc1ccccc1)c1ccccc1,"ETHYNE, DIPHENYL",573.15,
c1ccc2c(c1)Cc1ccccc1-2,FLUORENE,772.4477778,
CCCCN(C=O)CCCC,"FORMIC ACID, AMIDE, N,N-DIBUTYL",,
CCN(C=O)CC,"FORMIC ACID, AMIDE, N,N-DIETHYL",450.65,
CN(C)C=O,"FORMIC ACID, AMIDE, N,N-DIMETHYL",426.15,
O=CN(c1ccccc1)c1ccccc1,"FORMIC ACID, AMIDE, N,N-DIPHENYL",610.65,
CCNC=O,"FORMIC ACID, AMIDE, N-ETHYL",471.15,
CC(C)NC=O,"FORMIC ACID, AMIDE, N-ISOPROPYL",,
CNC=O,"FORMIC ACID, AMIDE, N-METHYL",455.65,
NC=O,"FORMIC ACID, AMIDE",687.4477778,
CCOC=O,"FORMIC ACID, ETHYL ESTER",531.67,
CCOC(=O)/C=C/C(=O)OCC,"FUMARIC ACID, DIETHYL ESTER",491.65,
N#C/C=C/C#N,"FUMARIC ACID, NITRILE",663.5588889,
NCc1ccco1,"FURAN, 2(AMINOMETHYL)",418.65,
COc1ccco1,"FURAN, 2-METHOXY",383.65,
Cc1occc1[N+](=O)[O-],"FURAN, 2-METHYL, 3-NITRO",,
Cc1ccc([N+](=O)[O-])o1,"FURAN, 2-METHYL, 5-NITRO",,
O=[N+]([O-])c1ccco1,"FURAN, 2-NITRO",,
N#CC1CCCO1,"FURAN, TETRAHYDRO, 2-CYANO",,
C1CCOC1,"FURAN, TETRAHYDRO",543.5588889,
Cc1nonc1C,"FURAZAN, 3,4-DIMETHYL",429.15,
Cc1ccc(C=O)o1,"FURFURAL, 5-METHYL",460.15,
O=Cc1ccc([N+](=O)[O-])o1,"FURFURAL, 5-NITRO",501.15,
O=CC1CCCO1,"FURFURAL, TETRAHYDRO",415.15,
O=Cc1ccco1,FURFURAL,639.17,
OCC(O)CO,GLYCEROL,767.4477778,
CCCCCCCCCCC(=O)Oc1ccc(N=Nc2ccc(OCC)cc2)cc1,"HENDECANOIC ACID, 4(4'-ETHOXYPHENYLAZO) PHENYL",,
CCCCCCCCCCCCCCCCCCCCC,HENEICOSANE,833.9477778,
CCCCCCCCCCCCCCCCC,HEPTADECANE,779.2255556,
CCCCCCCCCCCCCCCCC#N,"HEPTADECANOIC ACID, NITRILE",622.15,
CCCCCCC=O,HEPTANAL,630.2255556,
CC(C)CCCC(C)C,"HEPTANE, 2,6-DIMETHYL",408.35,
FC(F)(F)C(F)(F)C(F)(F)C(F)(F)C(F)(F)C(F)(F)C(F)(F)F,"HEPTANE, PERFLUORO",355.65,
N#CCCCCCC#N,"HEPTANEDIOIC ACID, DINITRILE",,
CCCCCCCCOC(=O)CCCCCC(=O)OCCCCCCCC,"HEPTANEDIOIC ACID, DIOCTYL ESTER",,
O=C(O)CCCCCC(=O)O,HEPTANEDIOIC ACID,615.15,
CCCCCCC,HEPTANE,575.8366667,
CCCCCCC#N,"HEPTANOIC ACID, NITRILE",456.15,
CCCCCCCCCCCCCCCCN,"HEXADECANE, 1-AMINO",800.2255556,
CCCCCCCCCCCCCCCCBr,"HEXADECANE, 1-BROMO",609.15,
CCCCCCCCCCCCCCCCCl,"HEXADECANE, 1-CHLORO",595.15,
CCCCCCCCCCCCCCCCI,"HEXADECANE, 1-IODO",,
CCCCCCCCCCCCCCCC,HEXADECANE,764.67,
CCCCCCCCCCCCCCCC(=O)OCC(COC(=O)CCCCCCCCCCCCCCC)OC(=O)CCCCCCCCCCCCCCC,"HEXADECANOIC ACID, 1,2,3-PROPANETRIYL ESTER",,
CCCCCCCCCCCCCCCC(=O)O,HEXADECANOIC ACID,624.65,
O=C1CCCCCO1,"HEXAMETHYLENE OXIDE, 2-OXO",488.15,
CCCCCCCl,"HEXANE, 1-CHLORO",408.15,
CC(C)CCC(C)(C)C,"HEXANE, 2,2,5-TRIMETHYL",397.15,
CCC(C)CC(C)C,"HEXANE, 2,4-DIMETHYL",382.65,
CCCCC(C)C,"HEXANE, 2-METHYL",363.15,
CCCC(C)CC,"HEXANE, 3-METHYL",364.15,
FC(F)(F)C(F)(F)C(F)(F)C(F)(F)C(F)(F)C(F)(F)F,"HEXANE, PERFLUORO",329.75,
CCCCC(CC)COC(=O)CCCCC(=O)OCC(CC)CCCC,"HEXANEDIOIC ACID, DI(2-ETHYLHEXYL) ESTER",894.67,
CCCCOC(=O)CCCCC(=O)OCCCC,"HEXANEDIOIC ACID, DIBUTYL ESTER",456.15,
CCCCCCOC(=O)CCCCC(=O)OCCCCCC,"HEXANEDIOIC ACID, DIHEXYL ESTER",,
N#CCCCCC#N,"HEXANEDIOIC ACID, DINITRILE",772.4477778,
CCCCCCCCOC(=O)CCCCC(=O)OCCCCCCCC,"HEXANEDIOIC ACID, DIOCTYL ESTER",,396.00 to 398.00 °C. @ 760.00 mm Hg
CCCCCC,HEXANE,546.3366667,
CCCCC(CC)C(=O)N(CCCC)CCCC,"HEXANOIC ACID, 2-ETHYL, AMIDE, N,N-DIBUTYL",,
CC(=O)CCCC#N,"HEXANOIC ACID, 5-OXO, NITRILE",,
O=C1CCCCCN1,"HEXANOIC ACID, 6-AMINO, CYCLIC LACTAM",744.3366667,
CCN1CCCCCC1=O,"HEXANOIC ACID, 6-AMINO, LACTAM, N-ETHYL",,
CN1CCCCCC1=O,"HEXANOIC ACID, 6-AMINO, LACTAM, N-METHYL",,
CCCCCC#N,"HEXANOIC ACID, NITRILE",436.75,
CCCCCCCCCCCCCCCCCCCCCCCCCCCCCCCCCCCC,HEXATRIACONTANE,,
C1=Cc2ccccc2C1,INDENE,659.1144444,
CCCCN=C=O,"ISOCYANIC ACID, BUTYL ESTER",388.15,
O=C=NCCCCCCN=C=O,"ISOCYANIC ACID, HEXAMETHYLENE ESTER",732.4477778,
c1ccc2cnccc2c1,ISOQUINOLINE,516.35,
Cc1cc(C)on1,"ISOXAZOLE, 3,5-DIMETHYL",416.15,
Cc1oncc1[N+](=O)[O-],"ISOXAZOLE, 5-METHYL, 4-NITRO",,
Cc1ccno1,"ISOXAZOLE, 5-METHYL",395.15,
CCCCOC(=O)/C=C\C(=O)OCCCC,"MALEIC ACID, DIBUTYL ESTER",554.15,
CCOC(=O)/C=C\C(=O)OCC,"MALEIC ACID, DIETHYL ESTER",491.65,
COC(=O)/C=C\C(=O)OC,"MALEIC ACID, DIMETHYL ESTER",470.65,
N#C/C=C\C#N,"MALEIC ACID, DINITRILE",,
CCCCCCCCCCOC(=O)CC(=O)OCCCCCCCCCC,"MALONIC ACID, DIDECYL ESTER",,
CCOC(=O)CC(=O)OCC,"MALONIC ACID, DIETHYL ESTER",473.15,
COC(=O)CC(=O)OC,"MALONIC ACID, DIMETHYL ESTER",454.55,
N#CCC#N,"MALONIC ACID, DINITRILE",491.65,
COC(=O)CC#N,"MALONIC ACID, MONOMETHYL ESTER, MONONITRILE",473.65,
ClCCl,"METHANE, DICHLORO",517.2255556,
CCOCOCC,"METHANE, DIETHOXY",361.15,
ICI,"METHANE, DIIODO",455.15,
c1ccc(Cc2ccccc2)cc1,"METHANE, DIPHENYL",538.15,
CI,"METHANE, IODO",519.8366667,
C[N+](=O)[O-],"METHANE, NITRO",578.67,
BrC(Br)(Br)Br,"METHANE, TETRABROMO",667.4477778,
ClC(Cl)(Cl)Cl,"METHANE, TETRACHLORO",554.17,
BrC(Br)Br,"METHANE, TRIBROMO",626.9477778,
ClC(Cl)Cl,"METHANE, TRICHLORO",539.1144444,
CN(C)CN(C)C,"METHANEDIAMINE, N,N,N',N'-TETRAMETHYL",356.15,
CC(=O)OCOC(C)=O,"METHANEDIOL, DIACETATE",,
CNS(C)(=O)=O,"METHANESULFONIC ACID, AMIDE, N-METHYL",,
OCc1ccco1,"METHANOL, (2-FURYL)",647.4477778,
O=[N+]([O-])c1ccc(CO)o1,"METHANOL, (2-FURYL, 5-NITRO)",,
OCC1CCCO1,"METHANOL, (2-TETRAHYDROFURYL)",451.15,
CO,METHANOL,542.0588889,
N#CN1CCOCC1,"MORPHOLINE, 4-CYANO",,
CN1CCOC(=O)C1,"MORPHOLINE, 4-METHYL, 2-OXO",,
O=NN1CCOCC1,"MORPHOLINE, 4-NITROSO",498.15,
CC(=O)N1CCOCC1,"MORPHOLINE, N-ACETYL",,
C1COCCN1,MORPHOLINE,606.3366667,
CN1CCOCC1=O,"MORPHOLINONE, 4-METHYL, 3-OXO",,
CN(C)c1cccc2ccccc12,"NAPHTHALENE, 1(DIMETHYLAMINO)",553.15,
Cc1ccc2ccccc2c1C,"NAPHTHALENE, 1,2-DIMETHYL",539.65,
Cc1ccc(C)c2ccccc12,"NAPHTHALENE, 1,4-DIMETHYL",541.15,
Nc1cccc2ccccc12,"NAPHTHALENE, 1-AMINO",778.5588889,
Brc1cccc2ccccc12,"NAPHTHALENE, 1-BROMO",554.15,
Clc1cccc2ccccc12,"NAPHTHALENE, 1-CHLORO",740.2255556,
CCCCCCc1cccc2ccccc12,"NAPHTHALENE, 1-HEXYL",595.15,
Oc1cccc2ccccc12,"NAPHTHALENE, 1-HYDROXY",561.15,
Cc1cccc2ccccc12,"NAPHTHALENE, 1-METHYL",517.85,
O=[N+]([O-])c1cccc2ccccc12,"NAPHTHALENE, 1-NITRO",781.3366667,
Clc1ccc2ccccc2c1,"NAPHTHALENE, 2-CHLORO",733.5588889,
CCOc1ccc2ccccc2c1,"NAPHTHALENE, 2-ETHOXY",555.15,
c1ccc2ccccc2c1,NAPHTHALENE,695.2255556,
CCCCCCCCCCCCCCCCCCCc1ccccc1,"NONADECANE, 1-PHENYL",692.15,
CCCCCCCCCCCCCCCCCCC,NONADECANE,807.17,
CCCCCCCCCBr,"NONANE, 1-BROMO",,
CCCCCCCCCCl,"NONANE, 1-CHLORO",476.65,
CCCCCCCOC(=O)CCCCCCCC(=O)OCCCCCCC,"NONANEDIOIC ACID, DIHEPTYL ESTER",,
CCCCCCCCC,NONANE,628.2255556,
CCCCCCCCC(=O)OC,"NONANOIC ACID, METHYL ESTER",486.65,
CCCCCCCCC#N,"NONANOIC ACID, NITRILE",497.55,
CCCCCCCCC(=O)O,NONANOIC ACID,527.65,
CCCCCCCCCCCCCCCCCCCCCCCCCCCC,OCTACOSANE,909.0588889,
CCCCCCCCCCCCCCCCCCCl,"OCTADECANE, 1-CHLORO",621.15,
CCCCCCCCCCCCCCCCCC,OCTADECANE,793.5588889,
CCCCCCCCCCCCCCCCCC(N)=O,"OCTADECANOIC ACID, AMIDE",,
CCCCCCCCCCCCCCCCCC(=O)Cl,"OCTADECANOIC ACID, CHLORIDE",488.15,215 °C @ 15 MM HG
CCCCCCCCCCCCCCCCCC(=O)OCC,"OCTADECANOIC ACID, ETHYL ESTER",,
CCCCCCCCCCCCCCCCCC(=O)O,OCTADECANOIC ACID,860.2255556,
CC(C)CCCCC(C)C,"OCTANE, 2,7-DIMETHYL",433.05,
CCCCCCC(C)C1CCCC1,"OCTANE, 2-CYCLOPENTYL",,
CCCCCCC(C)C,"OCTANE, 2-METHYL",416.35,
CCCCCC(C)CC,"OCTANE, 3-METHYL",417.35,
FC(F)(F)C(F)(F)C(F)(F)C(F)(F)C(F)(F)C(F)(F)C(F)(F)C(F)(F)F,"OCTANE, OCTADECAFLUORO",379.05,
CCCCCCCOC(=O)CCCCCCC(=O)OCCCCCCC,"OCTANEDIOIC ACID, DIHEPTYL ESTER",,
CCCCCCOC(=O)CCCCCCC(=O)OCCCCCC,"OCTANEDIOIC ACID, DIHEXYL ESTER",,
N#CCCCCCCC#N,"OCTANEDIOIC ACID, DINITRILE",,
CCCCCCCC,OCTANE,603.0588889,
CCCCCCCC(=O)OCC(COC(=O)CCCCCCC)OC(=O)CCCCCCC,"OCTANOIC ACID, 1,2,3-PROPANETRIYL ESTER",710.5588889,
CCOC(=O)C(F)(F)C(F)(Cl)C(F)(F)C(F)(Cl)C(F)(F)C(F)(Cl)C(F)(F)Cl,"OCTANOIC ACID, 1,2,4,6-TETRACHLORO, PERFLUORO, ETHYL ESTER",,
CCCCCCCC(=O)OCC,"OCTANOIC ACID, ETHYL ESTER",481.65,
CCCCCCCC#N,"OCTANOIC ACID, NITRILE",478.35,
CCCCCCCC(=O)O,OCTANOIC ACID,717.17,
CCCCCCCCCCOC(=O)C(=O)OCCCCCCCCCC,"OXALIC ACID, DIDECYL ESTER",,
CCOC(=O)C(=O)OCC,"OXALIC ACID, DIETHYL ESTER",458.85,
CCC(=O)N1CCOC1,"OXAZOLIDINE, 3-(1-OXOPROPYL)",,
CC(=O)N1CCOC1,"OXAZOLIDINE, 3-ACETYL",,
CCCCCCCCCCCCCCCc1ccccc1,"PENTADECANE, 1-PHENYL",646.15,
CCCCCCCCCCCCCCC,PENTADECANE,748.0755556,
CCCCCCCCCCCCCCC#N,"PENTADECANOIC ACID, NITRILE",,
CCCCCCl,"PENTANE, 1-CHLORO",585.2255556,
CC(C)CC(C)(C)C,"PENTANE, 2,2,4-TRIMETHYL",372.35,
CC(C)C(C)C(C)C,"PENTANE, 2,3,4-TRIMETHYL",386.65,
CC(C)CC(C)C,"PENTANE, 2,4-DIMETHYL",353.55,
CCCC(C)C,"PENTANE, 2-METHYL",537.7255556,
CCC(C)CC,"PENTANE, 3-METHYL",336.35,
COC(=O)CC(=O)CC(=O)OC,"PENTANEDIOIC ACID, 3-OXO, DIMETHYL ESTER",,
CCOC(=O)CCCC(=O)OCC,"PENTANEDIOIC ACID, DIETHYL ESTER",509.65,
COC(=O)CCCC(=O)OC,"PENTANEDIOIC ACID, DIMETHYL ESTER",487.15,
N#CCCCC#N,"PENTANEDIOIC ACID, DINITRILE",559.15,
CCCCCCCCCOC(=O)CCCC(=O)OCCCCCCCCC,"PENTANEDIOIC ACID, DINONYL ESTER",,
CC(C#N)CCC#N,"PENTANEDIOIC ACID, METHYL, DINITRILE",536.15,
C=C(C#N)CCC#N,"PENTANEDIOIC ACID, METHYLENE, DINITRILE",,
O=C1CCCC(=O)O1,PENTANEDIOIC ANHYDRIDE,560.15,
CCCCC,PENTANE,513.5588889,
CC(=O)CCC#N,"PENTANOIC ACID, 4-OXO, NITRILE",,
CCCCC#N,"PENTANOIC ACID, NITRILE",414.45,
CCCCCCCCCCCCCCCCCCCCCCCCCCCCCCCCCCC,PENTATRIACONTANE,763.15,
c1ccc2c(c1)CCc1ccccc1-2,"PHENANTHRENE, 9,10-DIHYDRO",,
c1ccc2c(c1)ccc1ccccc12,PHENANTHRENE,816.3366667,
COc1ccccc1O,"PHENOL, 2-METHOXY",478.15,
O=[N+]([O-])c1ccccc1O,"PHENOL, 2-NITRO",489.15,
Oc1cccc(OC(F)F)c1,"PHENOL, 3-(DIFLUOROMETHOXY)",,
Oc1cccc(C(F)(F)F)c1,"PHENOL, 3-(TRIFLUOROMETHYL)",451.15,
Oc1ccc(F)cc1,"PHENOL, 4-FLUORO",458.65,
Oc1c(F)c(F)c(F)c(F)c1F,"PHENOL, PENTAFLUORO",418.75,
Oc1ccccc1,PHENOL,659.67,
CCCCC(CC)COP(=O)(O)OCC(CC)CCCC,"PHOSPHORIC ACID, BIS(2-ETHYLHEXYL) ESTER",428.15,155 °C at 0.015 mm Hg
CCCCOP(=O)(O)O,"PHOSPHORIC ACID, BUTYL ESTER",,
CCCCOP(=O)(O)OCCCC,"PHOSPHORIC ACID, DIBUTYL ESTER",577.4477778,
COP(=O)(Oc1ccccc1)Oc1ccccc1,"PHOSPHORIC ACID, METHYL DIPHENYL ESTER",,
CN(C)P(=O)(N(C)C)N(C)C,"PHOSPHORIC ACID, TRIAMIDE, HEXAMETHYL",710.2255556,
CCCCOP(=O)(OCCCC)OCCCC,"PHOSPHORIC ACID, TRIBUTYL ESTER",766.3366667,
CCOP(=O)(OCC)OCC,"PHOSPHORIC ACID, TRIETHYL ESTER",488.65,
COP(=O)(OC)OC,"PHOSPHORIC ACID, TRIMETHYL ESTER",674.67,
O=P(Oc1ccccc1)(Oc1ccccc1)Oc1ccccc1,"PHOSPHORIC ACID, TRIPHENYL ESTER",722.4477778,"473 °F at 11 mmHg (NTP, 1992)"
CCCCOCCOP(=O)(OCCOCCCC)OCCOCCCC,"PHOSPHORIC ACID, TRIS(2-BUTOXYETHYL) ESTER",,
CCCCC(CC)COP(=O)(OCC(CC)CCCC)OCC(CC)CCCC,"PHOSPHORIC ACID, TRIS(2-ETHYLHEXYL) ESTER",,
Cc1ccc(OP(=O)(Oc2ccc(C)cc2C)Oc2ccc(C)cc2C)c(C)c1,"PHOSPHORIC ACID, TRIS(DIMETHYLPHENYL) ESTER",731.3366667,"469 to 509 °F at 10 mmHg (NTP, 1992)"
CCCCCCOC(=O)c1ccc([N+](=O)[O-])cc1C(=O)OCCCCCC,"PHTHALIC ACID, 4-NITRO, DIHEXYL ESTER",,
CCCCOC(=O)c1ccccc1C(=O)OCc1ccccc1,"PHTHALIC ACID, BENZYL BUTYL ESTER",847.4477778,
CCCCOC(=O)COC(=O)c1ccccc1C(=O)COC(=O)OCCCC,"PHTHALIC ACID, BIS(2-BUTOXY-2-OXOETHYL) ESTER",,
CCCCOC(=O)c1ccccc1C(=O)OCC(CC)CCCC,"PHTHALIC ACID, BUTYL, ETHYLHEXYL ESTER",,
CCCCC(CC)COC(=O)c1ccccc1C(=O)OCC(CC)CCCC,"PHTHALIC ACID, DI(2-ETHYLHEXYL) ESTER",861.3366667,
COCCOC(=O)c1ccccc1C(=O)OCCOC,"PHTHALIC ACID, DI(2-METHOXYETHYL) ESTER",613.15,
O=C(OCCc1ccccc1)c1ccccc1C(=O)OCCc1ccccc1,"PHTHALIC ACID, DI(2-PHENYLETHYL) ESTER",,
C=CCOC(=O)c1ccccc1C(=O)OCC=C,"PHTHALIC ACID, DI(2-PROPENYL) ESTER",767.4477778,
O=C(OCCCc1ccccc1)c1ccccc1C(=O)OCCCc1ccccc1,"PHTHALIC ACID, DI(3-PHENYLPROPYL) ESTER",,
CCC(C)OC(=O)c1ccccc1C(=O)OC(C)CC,"PHTHALIC ACID, DI(SEC.BUTYL) ESTER",,
O=C(OCc1ccccc1)c1ccccc1C(=O)OCc1ccccc1,"PHTHALIC ACID, DIBENZYL ESTER",,
CC1(C)C2CCC1(C)C(OC(=O)c1ccccc1C(=O)OC1CC3CCC1(C)C3(C)C)C2,"PHTHALIC ACID, DIBORNYL ESTER",,
CCCCOC(=O)c1ccccc1C(=O)OCCCC,"PHTHALIC ACID, DIBUTYL ESTER",817.4477778,
O=C(OC1CCCCC1)c1ccccc1C(=O)OC1CCCCC1,"PHTHALIC ACID, DICYCLOHEXYL ESTER",,
CCCCCCCCCCOC(=O)c1ccccc1C(=O)OCCCCCCCCCC,"PHTHALIC ACID, DIDECYL ESTER",,
CCOC(=O)c1ccccc1C(=O)OCC,"PHTHALIC ACID, DIETHYL ESTER",775.2255556,
CCCCCCCOC(=O)c1ccccc1C(=O)OCCCCCCC,"PHTHALIC ACID, DIHEPTYL ESTER",633.15,
CCCCCCOC(=O)c1ccccc1C(=O)OCCCCCC,"PHTHALIC ACID, DIHEXYL ESTER",827.4477778,"662 °F at 735 mmHg (NTP, 1992)"
CC(C)COC(=O)c1ccccc1C(=O)OCC(C)C,"PHTHALIC ACID, DIISOBUTYL ESTER",569.15,
CC(C)CCCCCCCOC(=O)c1ccccc1C(=O)OCCCCCCCC(C)C,"PHTHALIC ACID, DIISODECYL ESTER",,
CC(C)OC(=O)c1ccccc1C(=O)OC(C)C,"PHTHALIC ACID, DIISOPROPYL ESTER",,
CCCCCCCCCOC(=O)c1ccccc1C(=O)OCCCCCCCCC,"PHTHALIC ACID, DINONYL ESTER",890.2255556,
CCCCCCCCOC(=O)c1ccccc1C(=O)OCCCCCCCC,"PHTHALIC ACID, DIOCTYL ESTER",697.4477778,
CCCCCOC(=O)c1ccccc1C(=O)OCCCCC,"PHTHALIC ACID, DIPENTYL ESTER",819.67,
O=C(Oc1ccccc1)c1ccccc1C(=O)Oc1ccccc1,"PHTHALIC ACID, DIPHENYL ESTER",,
CCCOC(=O)c1ccccc1C(=O)OCCC,"PHTHALIC ACID, DIPROPYL ESTER",590.65,
CCCCOC(=O)c1c(Cl)c(Cl)c(Cl)c(Cl)c1C(=O)OCCCC,"PHTHALIC ACID, TETRACHLORO, DIBUTYL ESTER",,
CCCCCCCCCOC(=O)c1c(Cl)c(Cl)c(Cl)c(Cl)c1C(=O)OCCCCCCCCC,"PHTHALIC ACID, TETRACHLORO, DINONYL ESTER",,
CCCOC(=O)c1c(Cl)c(Cl)c(C(=O)OCCC)c(Cl)c1Cl,"PHTHALIC ACID, TETRACHLORO, DIPROPYL ESTER",,
CN1CCN(CCC#N)CC1,"PIPERAZINE, 1(2-CYANOETHYL), 4-METHYL",,
CC(=O)N1CCN(C)CC1,"PIPERAZINE, 1-ACETYL, 4-METHYL",,
CN1CCN(C=O)CC1,"PIPERAZINE, 1-FORMYL, 4-METHYL",,
CN1CCN(N=O)CC1,"PIPERAZINE, 1-METHYL, 4-NITROSO",,
CC(=O)N1CCCCC1,"PIPERIDINE, 1-ACETYL",499.65,
N#CN1CCCCC1,"PIPERIDINE, 1-CYANO",,
O=CN1CCCCC1,"PIPERIDINE, 1-FORMYL",495.65,
O=NN1CCCCC1,"PIPERIDINE, 1-NITROSO",694.67,"423 °F at 721 mmHg (NTP, 1992)"
O=[N+]([O-])N1CCCCC1,"PIPERIDINE, 1-NITRO",518.15,
C1CCNCC1,PIPERIDINE,583.5588889,
FCC(F)C(F)(F)F,"PROPANE, 1,1,1,2,3-PENTAFLUORO",,
FCC(F)(F)C(F)F,"PROPANE, 1,1,2,2,3-PENTAFLUORO",299.15,
CC(Cl)CCl,"PROPANE, 1,2-DICHLORO",368.65,
NCCCN,"PROPANE, 1,3-DIAMINO",612.9477778,"275.9 °F at 738 mmHg (NTP, 1992)"
CCCBr,"PROPANE, 1-BROMO",548.5588889,
CCC[N+](=O)[O-],"PROPANE, 1-NITRO",609.67,
CC(C)C,"PROPANE, 2-METHYL",465.67,
CC(C)[N+](=O)[O-],"PROPANE, 2-NITRO",597.7255556,
CCC,PROPANE,435.3366667,
CCC(=O)OC(C)C,"PROPANOIC ACID, 1-METHYLETHYL ESTER",382.65,
CC(=O)C(C)C#N,"PROPANOIC ACID, 2-ACETYL, NITRILE",,
CC(=O)OC(C)C#N,"PROPANOIC ACID, 2-HYDROXY, NITRILE, ACETATE",,
CC(C)(O)C(=O)O,"PROPANOIC ACID, 2-HYDROXY-, METHYL ESTER",485.15,
CC(O)C(=O)O,"PROPANOIC ACID, 2-HYDROXY",395.15,122 °C at 15 mm Hg
CC(C)C(=O)N(C)C,"PROPANOIC ACID, 2-METHYL, AMIDE, N,N-DIMETHYL",,
CNC(=O)C(C)C,"PROPANOIC ACID, 2-METHYL, AMIDE, N-METHYL",,
N#CCCN1CC1,"PROPANOIC ACID, 3(1-AZIRIDINYL), NITRILE",,
N#CCCN1CCCCC1,"PROPANOIC ACID, 3(1-PIPERIDINYL), NITRILE",,
N#CCCN1CCCC1,"PROPANOIC ACID, 3(1-PYRROLIDINYL), NITRILE",,
N#CCCn1cccc1,"PROPANOIC ACID, 3(1-PYRROLYL), NITRILE",,
N#CCCN1CCOCC1,"PROPANOIC ACID, 3(4-MORPHOLINYL), NITRILE",,
CCN(CC)CCC#N,"PROPANOIC ACID, 3(DIETHYLAMINO), NITRILE",,
CN(C)CCC#N,"PROPANOIC ACID, 3(DIMETHYLAMINO), NITRILE",649.67,
N#CCCOCC(COCCC#N)(COCCC#N)COCCC#N,"PROPANOIC ACID, 3,3',3'',3''' (NEOPENTANETETRAYLTETRAOXY) TETRA, NITRILE",,
N#CCCOCC(COCCC#N)OCCC#N,"PROPANOIC ACID, 3,3',3''-(1,2,3-PROPANETRIYLTRIOXY)TRI, NITRILE",,
N#CCCOCCOCCC#N,"PROPANOIC ACID, 3,3'-(ETHYLENEDIOXY)DI, NITRILE",,
N#CCCNCCC#N,"PROPANOIC ACID, 3,3'-IMINODI, DINITRILE",650.2255556,"343 °F at 10 mmHg (NTP, 1992)"
N#CCCOCCC#N,"PROPANOIC ACID, 3,3'-OXYDI, DINITRILE",579,
COC(=O)CCSCCC(=O)OC,"PROPANOIC ACID, 3,3'-THIODI, DIMETHYL ESTER",,
N#CCCSCCC#N,"PROPANOIC ACID, 3,3'-THIODI, DINITRILE",,
CC(CCOCCC#N)OCCC#N,"PROPANOIC ACID, 3,3'-[(1-METHYL-1,3-PROPANEDIYL)BIS(OXY)] BIS, NITRILE",,
N#CCCOCCOCCOCCC#N,"PROPANOIC ACID, 3,3'-[OXYBIS(ETHYLENEOXY)] DINITRILE",,
N#CCCOCC1COCO1,"PROPANOIC ACID, 3-(1,3-DIOXAN-5-YLOXY), NITRILE",,
N#CCCOCC(F)(F)C(F)F,"PROPANOIC ACID, 3-(2,2,3,3-TETRAFLUOROPROPOXY), NITRILE",,
Cc1ccccc1OCCC#N,"PROPANOIC ACID, 3-(2-METHYLPHENOXY), NITRILE",,
Cc1cccc(OCCC#N)c1,"PROPANOIC ACID, 3-(3-METHYLPHENOXY), NITRILE",,
Cc1ccc(OCCC#N)cc1,"PROPANOIC ACID, 3-(4-METHYLPHENOXY), NITRILE",,
N#CCCNc1ccccc1,"PROPANOIC ACID, 3-(ANILINO), NITRILE",,
N#CCCOCc1ccccc1,"PROPANOIC ACID, 3-(BENZYLOXY), NITRILE",,
CCCCOCCC#N,"PROPANOIC ACID, 3-BUTOXY, NITRILE",,
N#CCCCl,"PROPANOIC ACID, 3-CHLORO, NITRILE",448.65,
COC(=O)CCC#N,"PROPANOIC ACID, 3-CYANO, METHYL ESTER",484.15,
CCOCCC#N,"PROPANOIC ACID, 3-ETHOXY, NITRILE",426.65,
O=C1CCO1,"PROPANOIC ACID, 3-HYDROXY, BETA-LACTONE",639.67,
COC(=O)C(C)C#N,"PROPANOIC ACID, 3-HYDROXY, NITRILE, ACETATE",,
N#CCCO,"PROPANOIC ACID, 3-HYDROXY, NITRILE",705.2255556,
COCCC#N,"PROPANOIC ACID, 3-METHOXY, NITRILE",436.15,
N#CCCOCC1CCCO1,"PROPANOIC ACID, 3-OXY(TETRAHYDROFURFURYL), NITRILE",,
CCCCCOCCC#N,"PROPANOIC ACID, 3-PENTOXY, NITRILE",,
N#CCCOc1ccccc1,"PROPANOIC ACID, 3-PHENOXY, NITRILE",,
CCCOCCC#N,"PROPANOIC ACID, 3-PROPOXY, NITRILE",,
N#CCCSc1ccccc1,"PROPANOIC ACID, 3-THIOPHENOXY, NITRILE",,