SMILES,Name,Tb,Tb_info
N#CCCOCC(F)(F)C(F)(F)C(F)(F)C(F)F,"PROPANOIC ACID, 3-[(2,2,3,3,4,4,5,5-OCTAFLUOROPENTYL)OXY], NITRILE",,
CC1(C)OCC(OCCC#N)CO1,"PROPANOIC ACID, 3-[(2,2-DIMETHYL-1,3-DIOXAN-5-YL)OXY], NITRILE",,
CC1OCC(OCCC#N)CO1,"PROPANOIC ACID, 3-[(2-METHYL-1,3-DIOXAN-5-YL)OXY], NITRILE",,
CCC(=O)N(C)C,"PROPANOIC ACID, AMIDE, N,N-DIMETHYL",447.65,
CCNC(=O)CC,"PROPANOIC ACID, AMIDE, N-ETHYL",,
CCC(=O)NC,"PROPANOIC ACID, AMIDE, N-METHYL",421.15,
CCOC(=O)CC,"PROPANOIC ACID, ETHYL ESTER",576.3366667,
CN1CCC1=O,"PROPANOIC ACID, LACTAM, N-METHYL",,
CCC#N,"PROPANOIC ACID, NITRILE",574.67,
CCC(=O)O,PROPANOIC ACID,618.17,
C=C(C)C,"PROPENE, 2-METHYL",470.5588889,
C=CC,PROPENE,429.7255556,
[O-][n+]1ccccc1,"PYRIDINE, 1-OXIDE",,
Cc1cccc(CCO)n1,"PYRIDINE, 2(2-HYDROXYETHYL), 6-METHYL",,
OCCc1ccccn1,"PYRIDINE, 2(2-HYDROXYETHYL)",463.15,190 °C @ 200 mm Hg; 170 °C @ 100 mm Hg
Nc1ccccn1,"PYRIDINE, 2-AMINO",483.75,
c1ccc(Cc2ccccn2)cc1,"PYRIDINE, 2-BENZYL",550.15,
CCc1cccc(C)[n+]1[O-],"PYRIDINE, 2-METHYL, 6-ETHYL, 1-OXIDE",,
Cc1ccccn1,"PYRIDINE, 2-METHYL",402.45,
O=[N+]([O-])c1ccccn1,"PYRIDINE, 2-NITRO",,
Nc1cccnc1,"PYRIDINE, 3-AMINO",525.15,
CCc1cccnc1,"PYRIDINE, 3-ETHYL",438.15,
c1ccc(Cc2ccncc2)cc1,"PYRIDINE, 4-BENZYL",561.15,
O=[N+]([O-])c1ccncc1,"PYRIDINE, 4-NITRO",,
Fc1nc(F)c(F)c(F)c1F,"PYRIDINE, PENTAFLUORO",,
c1ccncc1,PYRIDINE,592.4477778,
CC(=O)n1cccc1,"PYRROLE, 1-ACETYL",,
CC(=O)N1CCCC1,"PYRROLIDINE, 1-ACETYL",,
O=NN1CCCC1,"PYRROLIDINE, 1-NITROSO",691.3366667,
[O-][n+]1cccc2ccccc21,"QUINOLINE, 1-OXIDE",,
Cc1cc(Cl)nc2ccccc12,"QUINOLINE, 2-CHLORO, 4-METHYL",569.15,
Cc1ccc2ccccc2n1,"QUINOLINE, 2-METHYL",725.0588889,
Cc1ccnc2ccccc12,"QUINOLINE, 4-METHYL",535.15,
O=[N+]([O-])c1cccc2ncccc12,"QUINOLINE, 5-NITRO",,
COc1ccc2ncccc2c1,"QUINOLINE, 6-METHOXY",579.15,
COc1cccc2cccnc12,"QUINOLINE, 8-METHOXY",556.15,
O=[N+]([O-])c1cccc2cccnc12,"QUINOLINE, 8-NITRO",,
c1ccc2ncccc2c1,QUINOLINE,715.2255556,
CO[Si](OC)(OC)OC,"SILANE, TETRAMETHOXY",598.5588889,
CC(C)CCCC(C)CCCC(C)CCCCC(C)CCCC(C)CCCC(C)C,"SQUALENE, PERHYDRO",623.15,
CC(C)=CCCC(C)=CCCC(C)=CCCC=C(C)CCC=C(C)CCC=C(C)C,SQUALENE,,
CCCCCCCC[Sn](Cl)(CCCCCCCC)CCCCCCCC,"STANNANE, CHLORIDE-, TRIOCTYL",,
CCCCCCCC[Sn](Cl)(Cl)CCCCCCCC,"STANNANE, DICHLORODIOCTYL",,
CCCC[Sn](CCCC)(CCCC)CCCC,"STANNANE, TETRABUTYL",418.15,145 °C @ 10 mm Hg
CCCCCCCCCCCC[Sn](CCCCCCCCCCCC)(CCCCCCCCCCCC)CCCCCCCCCCCC,"STANNANE, TETRADODECYL",,
CCCCCCCC[Sn](CCCCCCCC)(CCCCCCCC)CCCCCCCC,"STANNANE, TETRAOCTYL",,
CCCCC[Sn](CCCCC)(CCCCC)CCCCC,"STANNANE, TETRAPENTYL",,
CCCCOC(=O)CCC(=O)OCCCC,"SUCCINIC ACID, DIBUTYL ESTER",547.65,
CCOC(=O)CCC(=O)OCC,"SUCCINIC ACID, DIETHYL ESTER",490.85,
CC(C)CCCCCOC(=O)CCC(=O)OCCCCCC(C)C,"SUCCINIC ACID, DIISOOCTYL ESTER",,
COC(=O)CCC(=O)OC,"SUCCINIC ACID, DIMETHYL ESTER",673.8366667,
N#CCCC#N,"SUCCINIC ACID, DINITRILE",539.15,
CCCCCCCCCOC(=O)CCC(=O)OCCCCCCCCC,"SUCCINIC ACID, DINONYL ESTER",,
COC(=O)CC(C=O)C(=O)OC,"SUCCINIC ACID, FORMYL, DIMETHYL ESTER",,
OCCSCCO,"SULFIDE, DIETHYL, 2,2'-DIHYDROXY",555.15,
CCSCCO,"SULFIDE, DIETHYL, 2-HYDROXY",457.15,
O=[N+]([O-])c1cc(S(=O)(=O)C(F)(F)F)ccc1F,"SULFONE, 4-FLUORO-3-NITROPHENYL, TRIFLUOROMETHYL",,
C=CS(=O)(=O)C=C,"SULFONE, DIETHENYL",711.3366667,
O=S(=O)(c1ccccc1)C(F)F,"SULFONE, DIFLUOROMETHYL, PHENYL",,
CCS(C)(=O)=O,"SULFONE, ETHYL, METHYL",,
O=S(=O)(c1ccccc1)C(F)(F)F,"SULFONE, PHENYL, TRIFLUOROMETHYL",,
CC1CC(C)S(=O)(=O)C1,"SULFONE, TETRAMETHYLENE, 2,4-DIMETHYL",,
COC1CCS(=O)(=O)C1,"SULFONE, TETRAMETHYLENE, 3-METHOXY",,
CC1CCS(=O)(=O)C1,"SULFONE, TETRAMETHYLENE, 3-METHYL",,
O=S1(=O)CCCC1,"SULFONE, TETRAMETHYLENE",762.4477778,
CCS(=O)CC,"SULFOXIDE, DIETHYL",,
CS(C)=O,"SULFOXIDE, DIMETHYL",666.3366667,
O=S(c1ccccc1)c1ccccc1,"SULFOXIDE, DIPHENYL",,
CCCS(=O)CCC,"SULFOXIDE, DIPROPYL",,
CCS(=O)C(C)C,"SULFOXIDE, ETHYL ISOPROPYL",,
CCCS(=O)C(C)C,"SULFOXIDE, ISOPROPYL PROPYL",,
CCCS(C)=O,"SULFOXIDE, METHYL PROPYL",,
O=S1CCCC1,"SULFOXIDE, TETRAMETHYLENE",509.15,
O=S=O,SULFUR DIOXIDE,467.4477778,
CCOS(=O)(=O)OCC,"SULFURIC ACID, DIETHYL ESTER",686.8922222,
C=CS(=O)(=O)O,"SULFUROUS ACID, ETHYLENE ESTER",,
CCCCCCCCCCCCCCCCCCCCCCCCCCCCCCCCCCCCCCCC,TETRACONTANE,,
CCCCCCCCCCCCCCCCCCCCCCCC,TETRACOSANE,868.7255556,
CCCCCCCCCCCCCCc1ccccc1,"TETRADECANE, 1-PHENYL",836.3366667,
CCCCCCC(C)C(C)CCCCCC,"TETRADECANE, 7,8-DIMETHYL",,
CCCCCCCCCCCCCC,TETRADECANE,731.17,
CCCCCCCCCCCCCC(=O)N(C)C,"TETRADECANOIC ACID, AMIDE, N,N-DIMETHYL",,
COCCOCCOCCOCCOC,"TETRAETHYLENE GLYCOL, DIMETHYL ETHER",548.45,
OCCOCCOCCOCCO,TETRAETHYLENE GLYCOL,804.67,
c1ccc2c(c1)CCCC2,TETRALIN,685.2255556,
CCCCCCCCCCCCCCCCCCCCCCCCCCCCCCCCCC,TETRATRIACONTANE,756.15,
Cc1csc(N)n1,"THIAZOLE, 2-AMINO, 4-METHYL",,
CC(=O)N1CCSC1,"THIAZOLIDINE, 3-ACETYL",,
CC1CCS1(=O)=O,"THIETANE, 2-METHYL, 1,1-DIOXIDE",,
COC(=O)CSCC(=O)OC,"THIODIGLYCOLIC ACID, DIMETHYL ESTER",,
CC(=O)c1cccs1,"THIOPHENE, 2-ACETYL",486.65,
Cc1c([N+](=O)[O-])cc([N+](=O)[O-])cc1[N+](=O)[O-],"TOLUENE, 2,4,6-TRINITRO",717.4477778,
Cc1ccc([N+](=O)[O-])cc1[N+](=O)[O-],"TOLUENE, 2,4-DINITRO",777.4477778,
Cc1ccccc1N,"TOLUENE, 2-AMINO",473.45,
FC(F)(F)c1ccccc1Cl,"TOLUENE, 2-CHLORO, ALPHA, ALPHA, ALPHA-TRIFLUORO",425.35,
Cc1ccccc1O,"TOLUENE, 2-HYDROXY",668.5588889,
O=[N+]([O-])c1cc(C(F)(F)F)cc([N+](=O)[O-])c1F,"TOLUENE, 3,5-DINITRO, ALPHA, ALPHA, ALPHA, 4-TETRAFLUORO",,
O=[N+]([O-])c1cc([N+](=O)[O-])cc(C(F)(F)F)c1,"TOLUENE, 3,5-DINITRO, ALPHA, ALPHA, ALPHA-TRIFLUORO",,
Nc1cc(C(F)(F)F)ccc1Cl,"TOLUENE, 3-AMINO, 4-CHLORO, ALPHA, ALPHA, ALPHA-TRIFLUORO",,
Cc1cccc(O)c1,"TOLUENE, 3-HYDROXY",680.2255556,
O=[N+]([O-])c1cc(C(F)(F)F)ccc1F,"TOLUENE, 3-NITRO, ALPHA, ALPHA, ALPHA, 4-TETRAFLUORO",,
O=[N+]([O-])c1cccc(C(F)(F)F)c1,"TOLUENE, 3-NITRO, ALPHA, ALPHA, ALPHA-TRIFLUORO",680.2255556,
Cc1ccc(N)cc1,"TOLUENE, 4-AMINO",678.0033333,
O=[N+]([O-])c1cc(C(F)(F)F)cc([N+](=O)[O-])c1Cl,"TOLUENE, 4-CHLORO, 3,5-DINITRO, ALPHA, ALPHA, ALPHA-TRIFLUORO",,
O=[N+]([O-])c1cc(C(F)(F)F)ccc1Cl,"TOLUENE, 4-CHLORO, 3-NITRO, ALPHA, ALPHA, ALPHA-TRIFLUORO",700.0588889,
O=[N+]([O-])c1cc(C(F)(F)F)ccc1O,"TOLUENE, 4-HYDROXY, 3-NITRO, ALPHA, ALPHA, ALPHA-TRIFLUORO",,
Cc1ccc(O)cc1,"TOLUENE, 4-HYDROXY",679.2255556,
O=[N+]([O-])c1ccc(C(F)F)cc1,"TOLUENE, ALPHA, ALPHA-DIFLUORO, 4-NITRO",,
NCc1ccccc1,"TOLUENE, ALPHA-AMINO",661.9477778,
OCc1c(F)c(F)c(F)c(F)c1F,"TOLUENE, ALPHA-HYDROXY, 2,3,4,5,6-PENTAFLUORO",454.15,
CC(O)c1c(F)c(F)c(F)c(F)c1F,"TOLUENE, ALPHA-HYDROXY, ALPHA-METHYL, 2,3,4,5,6-PENTAFLUORO",,
Cc1ccccc1,TOLUENE,588.0588889,
CCCCCCCCCCCCCCCCCCCCCCCCCCCCCC,TRIACONTANE,927.17,
CCCCCCCCCCCCC,TRIDECANE,712.8366667,
CCCCOCCOCCOCCOCCCC,"TRIETHYLENE GLYCOL, DIBUTYL ETHER",,
OCCOCCOCCO,TRIETHYLENE GLYCOL,762.4477778,
NCCNCCNCCN,TRIETHYLENETETRAMINE,539.65,
CCCCOCCCOCCCOCCCOCCCC,"TRIPROPYLENE GLYCOL, DIBUTYL ETHER",,
COCCCOCCCOCCCOC,"TRIPROPYLENE GLYCOL, DIMETHYL ETHER",,
CCCCCCCCCCC,UNDECANE,673.3366667,
CN(C)C(=O)N(C)C,"UREA, 1,1,3,3-TETRAMETHYL",449.65,
O,WATER,577.4477778,
O=C1CSCCO1,"1,4-OXATHIAN-2-ONE",,
C=C(C)CC,"1-BUTENE, 2-METHYL",304.35,
O=CC1=CCCCC1,1-CYCLOHEXENE-1-CARBOXALDEHYDE,,
COC(=O)n1cccc1,"1-PYRROLECARBOXYLIC ACID, METHYL ESTER",,
OCCNCCO,"AMINE, DIETHYL-2,2'-DIHYDROXY",746.5588889,
CCNc1ccccc1,"ANILINE, N-ETHYL",682.17,
CCC1CCCCC1,"CYCLOHEXANE, ETHYL",609.1144444,
CCC1CCCC1c1ccccc1,"CYCLOPENTANE, 1-ETHYL, 2-PHENYL",,
CCOC(C)(C)CC,"ETHER, ETHYL TERT.PENTYL",375.15,
CC1C=CC(=O)O1,"PENTANOIC ACID, 4-HYDROXY, GAMMA-LACTONE",482.15,
Cc1cc(C)nc(C)c1,"PYRIDINE, 2,4,6-TRIMETHYL",443.75,
Cc1cccc(C)n1,"PYRIDINE, 2,6-DIMETHYL",417.25,
COCCOCCOCCOC(C)(C)C,2-[2-[2-(2-methoxyethoxy)ethoxy]ethoxy]-2-methylpropane,,
CCCCOCCOCCOCCOCCCC(C)(C)C,"1-[2-[2-(2-butoxyethoxy)ethoxy]ethoxy]-4,4-dimethylpentane",,
CSSC,(methyldisulfanyl)methane,587.17,
CCCCCCCCCCCCCCCCCCCCO,icosan-1-ol,645.15,
NCCCCCCCCN,"octane-1,8-diamine",498.15,
NCCCCCCCCCCN,"decane-1,10-diamine",,
C1CCC2CCCCC2C1,"1,2,3,4,4a,5,6,7,8,8a-decahydronaphthalene",672.4477778,
CCCCC(CC)CCC(C)(CC(CC)CCCC)C(N)=O,5-ethyl-2-(2-ethylhexyl)-2-methylnonanamide,,
O=S1OCCO1,"1,3,2-dioxathiolane 2-oxide",446.15,
C=CC1CCCS1(=O)=O,"2-ethenylthiolane 1,1-dioxide",,
CCCCCCCCCCCCCCCC(=O)OCC(O)CO,"2,3-dihydroxypropyl hexadecanoate",,
CCCCCCCCCCCCCCCC(=O)OCC(O)COC(=O)CCCCCCCCCCCCCCC,(3-hexadecanoyloxy-2-hydroxypropyl) hexadecanoate,,
CCCCCCCCCC(=O)O,decanoic acid,541.85,
CCCCCCCCCCCC(=O)O,dodecanoic acid,702.4477778,"437 °F at 100 mmHg (NTP, 1992)"
CCCCCCCCCCCCCC(=O)O,tetradecanoic acid,727.9477778,"482.9 °F at 100 mmHg (NTP, 1992)"
CCCCCCCCC=CCCCCCCCC(=O)O,octadec-9-enoic acid,,
CCCCCC=CCC=CCCCCCCCC(=O)O,"octadeca-9,12-dienoic acid",,
CCC=CCC=CCC=CCCCCCCCC(=O)O,"octadeca-9,12,15-trienoic acid",,
C1COCCOCCOCCOCCOCCO1,"1,4,7,10,13,16-hexaoxacyclooctadecane",,
O=S1(=O)CC=CC1,"2,5-dihydrothiophene 1,1-dioxide",,
NC1CCS(=O)(=O)C1,"1,1-dioxothiolan-3-amine",,
C1CCOCC1,oxane,361.15,
CCCCOCCO,2-butoxyethanol,648.5588889,"340 °F at 743 mmHg (NTP, 1992)"
CCCOCCO,2-propoxyethanol,626.8922222,
CC(C)OCCO,2-propan-2-yloxyethanol,618.4477778,
CCCCCCCCCCOC1CCS(=O)(=O)C1,"3-decoxythiolane 1,1-dioxide",,
O=S1(=O)CCC(O)C1,"1,1-dioxothiolan-3-ol",,
FC(Cl)(Cl)C(F)(Cl)Cl,"1,1,2,2-tetrachloro-1,2-difluoroethane",570.2255556,
CCCCOC(=O)COC(=O)c1ccccc1C(=O)OCCCC,"2-O-(2-butoxy-2-oxoethyl) 1-O-butyl benzene-1,2-dicarboxylate",618.15,
CCCCCOC(C)=O,pentyl acetate,623.5588889,
CC1=CC2CC(C1)C2(C)C,"3,6,6-trimethylbicyclo[3.1.1]hept-2-ene",,
N#CCCCCCCCCC#N,decanedinitrile,,
CCCCCCCCCCCCCCCCCCC(F)(F)C(F)(F)C(F)(F)C(F)(F)F,"1,1,1,2,2,3,3,4,4-nonafluorodocosane",,
CCCCCCCCCCCCCCCCC(F)(F)C(F)(F)C(F)(F)C(F)(F)C(F)(F)C(F)(F)F,"1,1,1,2,2,3,3,4,4,5,5,6,6-tridecafluorodocosane",,
CCCCCCCCCCCCC(F)(F)C(F)(F)C(F)(F)C(F)(F)C(F)(F)C(F)(F)F,"1,1,1,2,2,3,3,4,4,5,5,6,6-tridecafluorooctadecane",,
CCCCCCCCCCCCC(F)(F)C(F)(F)C(F)(F)C(F)(F)C(F)(F)C(F)(F)C(F)(F)C(F)(F)F,"1,1,1,2,2,3,3,4,4,5,5,6,6,7,7,8,8-heptadecafluoroicosane",,
OCCN(CCO)CCN(CCO)CCO,2-[2-[bis(2-hydroxyethyl)amino]ethyl-(2-hydroxyethyl)amino]ethanol,,
NCCNCCNCCNCCN,"N'-[2-[2-(2-aminoethylamino)ethylamino]ethyl]ethane-1,2-diamine",817.4477778,
N#CCCCCCCCCCCCCC#N,tetradecanedinitrile,,
CCCCN(CCCC)C(=O)c1ccccc1,"N,N-dibutylbenzamide",,
CCOC,methoxyethane,280.55,
CC(=O)OC(C)C,propan-2-yl acetate,361.75,
Cc1ccc(C)c(C)c1,"1,2,4-trimethylbenzene",645.4477778,
CC1CCCS1(=O)=O,2-Methylsulfolane,,
[O-][S+]1CCCC1,Tetramethylene sulfoxide,509.15,
Cc1ccc(OP(=O)(Oc2ccc(C)cc2)Oc2ccc(C)cc2)cc1,Tricresyl phosphate,701.3366667,"435 °F at 3.5 mmHg (NTP, 1992)"