SMILES,Name,Tb,Tb_info
CC1(C)COC(=O)C1O,(D)-PANTOLACTONE,,
CC(=O)OCC(COC(C)=O)OC(C)=O,"1,2,3-PROPANETRIOL, TRIACETATE",532.15,
COC(=O)c1ccccc1C(=O)OC,"1,2-BENZENEDICARBOXYLIC ACID, DIMETHYL ESTER",761.17,
CC(=O)OCCOC(C)=O,"1,2-ETHANEDIOL, DIACETATE",463.15,
OCCO,"1,2-ETHANEDIOL",675.0588889,
OCC(O)COCC(O)CO,"1,2-PROPANEDIOL, 3,3'-OXYDI",,
OCC(O)CCl,"1,2-PROPANEDIOL, 3-CHLORO",690.2255556,
CC(O)CO,"1,2-PROPANEDIOL",665.67,
Cc1nnc(C)o1,"1,3,4-OXADIAZOLE, 2,5-DIMETHYL",,
CCCCCCOC(=O)c1cccc(C(=O)OCCCCCC)c1,"1,3-BENZENEDICARBOXYLIC ACID, DIHEXYL ESTER",,
C=CC(=C)C,"1,3-BUTADIENE, 2-METHYL",511.3366667,
C=CC=C,"1,3-BUTADIENE",473.0588889,
O=C1OCC(CCl)O1,"1,3-DIOXOLAN-2-ONE, 4-CHLOROMETHYL",,
CC1COC(=O)O1,"1,3-DIOXOLAN-2-ONE, 4-METHYL",515.15,
O=C1OCCO1,"1,3-DIOXOLAN-2-ONE",521.15,
CCC(CO)(CO)CO,"1,3-PROPANEDIOL, 2-ETHYL, 2-HYDROXYMETHYL",433.15,160 °C @ 5 MM HG
CC(=O)OCCCOC(C)=O,"1,3-PROPANEDIOL, DIACETATE",482.65,
OCCCO,"1,3-PROPANEDIOL",487.55,
CCCCOC(=O)c1c(Cl)c(Cl)c(OC(=O)CCCOC(=O)c2c(Cl)c(Cl)c(C(=O)OCCCC)c(Cl)c2Cl)c(Cl)c1Cl,"1,4-BENZENEDICARBOXYLIC ACID, 2,3,5,6-TETRACHLORO, 1,3-PROPANEDIYL DIBUTYL ESTER",,
CCCOC(=O)c1c(Cl)c(Cl)c(OC(=O)CCCOC(=O)c2c(Cl)c(Cl)c(C(=O)OCCC)c(Cl)c2Cl)c(Cl)c1Cl,"1,4-BENZENEDICARBOXYLIC ACID, 2,3,5,6-TETRACHLORO, 1,3-PROPANEDIYL DIPROPYL ESTER",,
CCCCCCOC(=O)c1ccc(C(=O)OCCCCCC)cc1,"1,4-BENZENEDICARBOXYLIC ACID, DIHEXYL ESTER",,
CCCCOC(=O)c1c(Cl)c(Cl)c(C(=O)OCCCC)c(Cl)c1Cl,"1,4-BENZENEDICARBOXYLIC ACID, TETRACHLORO, DIBUTYL ESTER",,
CCCCCOC(=O)c1c(Cl)c(Cl)c(C(=O)OCCCCC)c(Cl)c1Cl,"1,4-BENZENEDICARBOXYLIC ACID, TETRACHLORO, DIPENTYL ESTER",,
CCCOC(=O)c1c(Cl)c(Cl)c(Cl)c(Cl)c1C(=O)OCCC,"1,4-BENZENEDICARBOXYLIC ACID, TETRACHLORO, DIPROPYL ESTER",,
COCC1(C)COc2ccc(C)cc2S1,"1,4-BENZOXATHIIN, 2,3-DIHYDRO-3-(METHOXYMETHYL)-3,6-DIMETHYL",,
OCCCCO,"1,4-BUTANEDIOL",707.4477778,
O=C1COCCO1,"1,4-DIOXAN-2-ONE",,
C1COCCO1,"1,4-DIOXANE",578.5588889,
O=S1CCOCC1,"1,4-OXATHIANE, 4-OXIDE",,
OCCCCCO,"1,5-PENTANEDIOL",512.15,
C=CCCCC=C,"1,6-HEPTADIENE",,
OCCCCCCO,"1,6-HEXANEDIOL",523.15,
SCCCCCCS,"1,6-HEXANEDITHIOL",,118.00 to 119.00 °C. @ 15.00 mm Hg
OCCCCCCCCCO,"1,9-NONANEDIOL",,
COC(=O)N1CC1,"1-AZIRIDINECARBOXYLIC ACID, METHYL ESTER",,
CCC(C)CO,"1-BUTANOL, 2-METHYL",401.15,
CC(C)CCO,"1-BUTANOL, 3-METHYL",609.67,
CCCCO,1-BUTANOL,595.17,
CCCC(=O)c1ccccc1,"1-BUTANONE, 1-PHENYL",501.65,
C=CCC,1-BUTENE,471.3366667,
N#CC1=CCCCC1,"1-CYCLOHEXENE-1-CARBOXYLIC ACID, NITRILE",,
CCCCCCCCCCO,1-DECANOL,707.4477778,
C=CCCCCCCCC,1-DECENE,648.0588889,
CCCCCCCCCCCCCCCCCCCCCCO,1-DOCOSANOL,453.15,180 °C at 0.22 mm Hg
CCCCCCCCCCCCO,1-DODECANOL,736.3366667,
C=CCCCCCCCCCCCCCCCCCC,1-EICOSENE,614.15,
OCC(F)(F)C(F)(F)C(F)(F)C(F)(F)C(F)(F)C(F)(F)F,"1-HEPTANOL, 2,2,3,3,4,4,5,5,6,6,7,7,7-TRIDECAFLUORO",,
OCC(F)(F)C(F)(F)C(F)(F)C(F)(F)C(F)(F)C(F)F,"1-HEPTANOL, 2,2,3,3,4,4,5,5,6,6,7,7-DODECAFLUORO",,
CCCCCCCO,1-HEPTANOL,653.5588889,
C=CCCCCC,1-HEPTENE,571.0588889,
C#CCCCCC,1-HEPTYNE,372.85,
CCCCCCCCCCCCCCCCO,1-HEXADECANOL,607.15,
C=CCCCCCCCCCCCCCC,1-HEXADECENE,558.05,
CCCCCCO,1-HEXANOL,634.5588889,
C=CCCCC,1-HEXENE,540.9477778,
C#CCCCC,1-HEXYNE,344.45,
O=Cc1cccc2ccccc12,1-NAPHTHALDEHYDE,565.15,
CCCCCCCCCO,1-NONANOL,690.2255556,
C=CCCCCCCC,1-NONENE,624.67,
CCCCCCCCCCCCCCCCCCO,1-OCTADECANOL,483.65,210.5 °C at 15 mm Hg
C=CCCCCCCCCCCCCCCCC,1-OCTADECENE,,
CCCCCCCCO,1-OCTANOL,672.4477778,
C=CCCCCCC,1-OCTENE,598.7255556,
C#CCCCCCC,1-OCTYNE,399.45,
OCC(F)(F)C(F)(F)C(F)(F)C(F)(F)F,"1-PENTANOL, 2,2,3,3,4,4,5,5,5-NONAFLUORO",,
OCC(F)(F)C(F)(F)C(F)(F)C(F)F,"1-PENTANOL, 2,2,3,3,4,4,5,5-OCTAFLUORO",413.65,
CCCCCO,1-PENTANOL,615.2255556,
C=C(C)CCC,"1-PENTENE, 2-METHYL",539.5588889,
C=CCCC,1-PENTENE,507.3366667,
O=S1(=O)CCCO1,"1-PROPANESULFONIC ACID, 3-HYDROXY, GAMMA-SULTONE",453.15,180 °C at 0.039 atm.
OCC(F)(F)C(F)F,"1-PROPANOL, 2,2,3,3-TETRAFLUORO",382.65,
CC(C)CO,"1-PROPANOL, 2-METHYL",584.67,
CCCO,1-PROPANOL,574.67,
CCC(=O)c1ccccc1,"1-PROPANONE, 1-PHENYL",490.65,
O=CN1CCCC1,1-PYRROLIDINECARBOXALDEHYDE,,
COC(=O)N1CCCC1,"1-PYRROLIDINECARBOXYLIC ACID, METHYL ESTER",,
CCCCCCCCCCCCCCO,1-TETRADECANOL,740.67,
CCCCCCCCCC(=O)CCCCCCCCC,10-NONADECANONE,,
CC(=O)C(C)=O,"2,3-BUTANEDIONE",565.2255556,
CCC(=O)CC(C)=O,"2,4-HEXANEDIONE",433.15,
CC(=O)CC(C)=O,"2,4-PENTANEDIONE",617.8366667,
CCOC(=O)c1ccc(C(=O)OCC)o1,"2,5-FURANDICARBOXYLIC ACID, DIETHYL ESTER",,
CC(=O)CCC(C)=O,"2,5-HEXANEDIONE",668.5588889,
CC(=O)CCCC(C)=O,"2,6-HEPTANEDIONE",,
CC(=O)CCCCC(C)=O,"2,7-OCTANEDIONE",,
CCC(O)C[N+](=O)[O-],"2-BUTANOL, 1-NITRO",,
CCC(C)(C)O,"2-BUTANOL, 2-METHYL",375.55,
CC(O)C(C)(C)[N+](=O)[O-],"2-BUTANOL, 3-METHYL, 3-NITRO",,
CC(O)C(C)[N+](=O)[O-],"2-BUTANOL, 3-NITRO",,
CCC(C)O,2-BUTANOL,576.8922222,
CC(=O)CCc1ccccc1,"2-BUTANONE, 4-PHENYL",506.65,
CCC(C)=O,2-BUTANONE,557.0588889,
C/C=C\C,2-BUTENE(CIS),275.4,
C/C=C/C,2-BUTENE(TRANS),275.4,
OC/C=C/CO,"2-BUTENE, 1,4-DIOL",,
CC=C(C)C,"2-BUTENE, 2-METHYL",311.65,
OCC#CCO,"2-BUTYNE, 1,4-DIOL",715.2255556,
COC(=O)C#CC(=O)OC,"2-BUTYNEDIOIC ACID, DIMETHYL ESTER",,
CC1=CC(=O)CC(C)(C)C1,"2-CYCLOHEXEN-1-ONE, 3,5,5-TRIMETHYL",692.67,
CCCCCCCCCCC(C)=O,2-DODECANONE,519.65,
COC(=O)c1ccco1,"2-FURANCARBOXYLIC ACID, METHYL ESTER",454.45,
N#Cc1ccco1,"2-FURANCARBOXYLIC ACID, NITRILE",420.15,
COC(=O)C1CCCO1,"2-FURANCARBOXYLIC ACID, TETRAHYDRO, METHYL ESTER",,
CCCCCC(C)=O,2-HEPTANONE,626.3366667,
CCCCC(O)C[N+](=O)[O-],"2-HEXANOL, 1-NITRO",,
CN1CCN(C)C1=O,"2-IMIDAZOLIDINONE, 1,3-DIMETHYL",494.15,
CCCCCCCC(C)=O,2-NONANONE,669.4477778,"377.6 °F at 743 mmHg (USCG, 1999)"
CCCCCCC(C)O,2-OCTANOL,452.4,
CCCCCCC(C)=O,2-OCTANONE,445.65,
CCN1CCOC1=O,"2-OXAZOLIDINONE, 3-ETHYL",,
CN1CCOC1=O,"2-OXAZOLIDINONE, 3-METHYL",,
O=C1OCCN1CCO,"2-OXAZOLIDONE, N-HYDROXYETHYL",,
CCCC(O)C[N+](=O)[O-],"2-PENTANOL, 1-NITRO",,
CCCC(C)O,2-PENTANOL,589.67,"234 °F at 760 mmHg (NIOSH, 2022)"
CC(=O)CC(C)C,"2-PENTANONE, 4-METHYL",389.65,
CCCC(C)=O,2-PENTANONE,375.35,
CN1CCCCC1=O,"2-PIPERIDONE, 1-METHYL",,
OC(C(F)(F)F)C(F)(F)F,"2-PROPANOL, 1,1,1,3,3,3-HEXAFLUORO",536.3366667,
OC(CCl)CCl,"2-PROPANOL, 1,3-DICHLORO",651.3366667,
CC(CO)[N+](=O)[O-],"2-PROPANOL, 1-NITRO",,
CC(C)(C)O,"2-PROPANOL, 2-METHYL",559.67,
CC(C)(O)c1ccccc1,"2-PROPANOL, 2-PHENYL",475.15,
CC(C)O,2-PROPANOL,559.9477778,
CC(=O)CBr,"2-PROPANONE, 1-BROMO",613.5588889,
CC(=O)CC1CCCCC1,"2-PROPANONE, 1-CYCLOHEXYL",,
CC(=O)CO,"2-PROPANONE, 1-HYDROXY",418.65,
CC(=O)C[N+](=O)[O-],"2-PROPANONE, 1-NITRO",,
CC(=O)Cc1ccccc1,"2-PROPANONE, PHENYL",489.65,
CC(C)=O,2-PROPANONE,533.5588889,
C=CCO,2-PROPEN-1-OL,574.1144444,
CCCCCCCCN1CCCC1=O,"2-PYRROLIDINONE, 1-OCTYL",,
O=C1CCCN1,2-PYRROLIDINONE,518.15,
CC1CCC(=O)N1C,"2-PYRROLIDONE, 1,5-DIMETHYL",490.15,
CCN1CCCC1=O,"2-PYRROLIDONE, 1-ETHYL",,
CN1CCCC1=O,"2-PYRROLIDONE, 1-METHYL",679.67,
O=Cc1cccs1,2-THIOPHENECARBOXALDEHYDE,470.15,
CCOC(=O)c1cocc1C(=O)OCC,"3,4-FURANDICARBOXYLIC ACID, DIETHYL ESTER",,
C=C(C)CCO,"3-BUTEN-1-OL, 3-METHYL",405.15,
C=CC(C)(C)O,"3-BUTEN-2-OL, 2-METHYL",370.15,
O=C1CC=CO1,"3-BUTENOIC ACID, 4-HYDROXY, GAMMA-LACTONE",,
CC(=O)C1CC=CCC1,"3-CYCLOHEXENE, 1-ACETYL",,
O=CC1CC=CCC1,3-CYCLOHEXENE-1-CARBOXALDEHYDE,378.15,
COC(=O)C1CC=CCC1,"3-CYCLOHEXENE-1-CARBOXYLIC ACID, METHYL ESTER",,
N#CC1CC=CCC1,"3-CYCLOHEXENE-1-CARBOXYLIC ACID, NITRILE",,
COC(=O)c1ccoc1,"3-FURANCARBOXYLIC ACID, METHYL ESTER",433.15,
N#Cc1ccoc1,"3-FURANCARBOXYLIC ACID, NITRILE",,
COC(=O)C1CCOC1,"3-FURANCARBOXYLIC ACID, TETRAHYDRO, METHYL ESTER",,
O=Cc1ccoc1,3-FURFURAL,418.15,
CCCCC(=O)CC,3-HEPTANONE,624.67,
O=CN1CCOC1,3-OXAZOLIDINECARBOXALDEHYDE,,
COC(=O)N1CCOC1,"3-OXAZOLIDINECARBOXYLIC ACID, METHYL ESTER",,
CCC(O)C(C)(C)[N+](=O)[O-],"3-PENTANOL, 2-METHYL, 2-NITRO",,
CCC(O)CC,3-PENTANOL,389.35,
CCC(=O)CC,3-PENTANONE,579.67,
COC(=O)c1c(C)noc1C,"4-ISOXAZOLECARBOXYLIC ACID, 3,5-DIMETHYL, METHYL ESTER",,
O=CN1CCOCC1,4-MORPHOLINECARBOXALDEHYDE,512.15,
COC(=O)N1CCOCC1,"4-MORPHOLINECARBOXYLIC ACID, METHYL ESTER",,
c1ccc2c(c1)ccc1cccnc12,"7,8-BENZOQUINOLINE",612.15,
O=C1c2cc([N+](=O)[O-])ccc2-c2c1cc([N+](=O)[O-])cc2[N+](=O)[O-],"9-FLUORENONE, 2,4,7-TRINITRO",,
CCCCCCCCC(=O)CCCCCCCC,9-HEPTADECANONE,524.65,
CC(=O)COC(C)=O,"ACETIC ACID, 2-OXOPROPYL ESTER",444.15,
CCN(CC)C(C)=O,"ACETIC ACID, AMIDE, N,N-DIETHYL",458.65,
CC(=O)N(C)C,"ACETIC ACID, AMIDE, N,N-DIMETHYL",438.15,
CCNC(C)=O,"ACETIC ACID, AMIDE, N-ETHYL",478.15,
CC(=O)NC(C)C,"ACETIC ACID, AMIDE, N-ISOPROPYL",,
CNC(C)=O,"ACETIC ACID, AMIDE, N-METHYL",478.15,
CC(=O)Nc1ccccc1,"ACETIC ACID, AMIDE, N-PHENYL",781.3366667,
CC(=O)OCc1ccccc1,"ACETIC ACID, BENZYL ESTER",692.9477778,
CCOC(=O)CBr,"ACETIC ACID, BROMO, ETHYL ESTER",441.65,
CCCCOC(C)=O,"ACETIC ACID, BUTYL ESTER",603.9477778,
N#CCCl,"ACETIC ACID, CHLORO, NITRILE",399.15,
O=C(O)C(Cl)Cl,"ACETIC ACID, DICHLORO",671.3366667,
O=C(OCC[N+](=O)[O-])C(F)F,"ACETIC ACID, DIFLUORO, 2-NITROETHYL ESTER",,
CCOC(C)=O,"ACETIC ACID, ETHYL ESTER",554.67,
CCCCCCOC(C)=O,"ACETIC ACID, HEXYL ESTER",444.65,
COC(=O)CNCC(=O)OC,"ACETIC ACID, IMINODI, DIMETHYL ESTER",,
COC(=O)CN(C)CC(=O)OC,"ACETIC ACID, IMINODI, N-METHYL, DIMETHYL ESTER",,
COCC#N,"ACETIC ACID, METHOXY, NITRILE",392.15,
COC(C)=O,"ACETIC ACID, METHYL ESTER",534.3366667,
CC#N,"ACETIC ACID, NITRILE",559.0588889,
COC(=O)COCC(=O)OC,"ACETIC ACID, OXYDI, DIMETHYL ESTER",,
CC(=O)Oc1ccccc1,"ACETIC ACID, PHENYL ESTER",469.15,
N#CCc1ccccc1,"ACETIC ACID, PHENYL, NITRILE",710.4477778,
CCCOC(C)=O,"ACETIC ACID, PROPYL ESTER",579.0588889,
CC(=O)O,ACETIC ACID,391.05,
CC(=O)c1c(F)c(F)c(F)c(F)c1F,"ACETOPHENONE, 2',3',4',5',6'-PENTAFLUORO",,
O=C(c1c(F)c(F)c(F)c(F)c1F)C(F)(F)F,"ACETOPHENONE, OCTAFLUORO",,
CC(=O)c1ccccc1,ACETOPHENONE,679.17,
O=C(OCC[N+](=O)[O-])C(F)(F)F,"ACTIC ACID, TRIFLUORO, 2-NITROETHYL ESTER",,
CC1=CCC2CC1C2(C)C,ALPHA-PINENE,633.67,
CCN(CC)N=O,"AMINE, DIETHYL, N-NITROSO",654.67,
CCNCC,"AMINE, DIETHYL",532.9477778,
CC(C)NC(C)C,"AMINE, DIISOPROPYL",561.3366667,
CCN(C)C,"AMINE, DIMETHYL ETHYL",309.65,
CNC,"AMINE, DIMETHYL",484.8366667,
c1ccc(Nc2ccccc2)cc1,"AMINE, DIPHENYL",779.67,
CCCNCCC,"AMINE, DIPROPYL",586.8366667,
CCCCCCCCCCCCN,"AMINE, DODECYL",532.15,
FC(F)(F)C(F)(F)C(F)(F)C(F)(F)N(C(F)(F)C(F)(F)C(F)(F)C(F)(F)F)C(F)(F)C(F)(F)C(F)(F)C(F)(F)F,"AMINE, TRIBUTYL, PERFLUORO",451.15,
CCCCN(CCCC)CCCC,"AMINE, TRIBUTYL",690.2255556,
OCCN(CCO)CCO,"AMINE, TRIETHYL, 2,2',2''-TRIHYDROXY",812.8366667,
CCN(CC)CC,"AMINE, TRIETHYL",566.7255556,
CCCCCCN(CCCCCC)CCCCCC,"AMINE, TRIHEXYL",534.85,
CCCCCCCCN(CCCCCCCC)CCCCCCCC,"AMINE, TRIOCTYL",639.15,
CCCCCN(CCCCC)CCCCC,"AMINE, TRIPENTYL",515.65,
Nc1c(F)c(F)c(F)c(F)c1F,"ANILINE, 2,3,4,5,6-PENTAFLUORO",426.15,
Nc1c(F)cc(F)c(F)c1F,"ANILINE, 2,3,4,6-TETRAFLUORO",,
Nc1ccc(F)cc1F,"ANILINE, 2,4-DIFLUORO",647.4477778,"338 °F at 753 mmHg (NTP, 1992)"
Nc1cc(C(F)(F)F)ccc1C(F)(F)F,"ANILINE, 2,5-BIS(TRIFLUOROMETHYL)",,
Nc1ccccc1F,"ANILINE, 2-FLUORO",652.4477778,
COc1ccccc1N,"ANILINE, 2-METHOXY",702.4477778,
Nc1cccc(C(F)F)c1,"ANILINE, 3-(DIFLUOROMETHYL)",,
Nc1cccc(C(F)(F)F)c1,"ANILINE, 3-(TRIFLUOROMETHYL)",664.9477778,"369.5 °F at 764 mmHg (EPA, 1998)"
CN(C)c1ccc(Br)cc1,"ANILINE, 4-BROMO, N,N-DIMETHYL",537.15,
Nc1ccc(F)cc1,"ANILINE, 4-FLUORO",658.9477778,
COc1ccc(N)cc1,"ANILINE, 4-METHOXY",720.2255556,
Nc1ccc(SC(F)F)cc1,"ANILINE, 4-[(DIFLUOROMETHYL)THIO]",,
CCCCN(CCCC)c1ccccc1,"ANILINE, N,N-DIBUTYL",547.95,
CCN(CC)c1ccccc1,"ANILINE, N,N-DIETHYL",692.9477778,
CN(C)c1cccc([N+](=O)[O-])c1,"ANILINE, N,N-DIMETHYL, 3-NITRO",555.65,
CN(C)c1ccc(N=O)cc1,"ANILINE, N,N-DIMETHYL, 4-NITROSO",,
CN(C)c1ccccc1,"ANILINE, N,N-DIMETHYL",671.3366667,
CNc1ccccc1,"ANILINE, N-METHYL",673.7255556,
Nc1ccccc1,ANILINE,457.25,
CC(=O)N1CC1,"AZIRIDINE, 1-ACETYL",,
Cc1ccc(N=Nc2ccc(OCc3ccc(Cl)cc3)c(C)c2)cc1,"AZOBENZENE, 3,4'-DIMETHYL-4-[(4-CHLOROBENZYL)OXY]",,
c1ccc(N=Nc2ccccc2)cc1,AZOBENZENE,770.2255556,
CCCCCCCOc1ccc(N=[N+]([O-])c2ccc(OCCCCCCC)cc2)cc1,"AZOXYBENZENE, 4,4'-DIHEPTOXY",,
CCCCCCOc1ccc(N=[N+]([O-])c2ccc(OCCCCCC)cc2)cc1,"AZOXYBENZENE, 4,4'-DIHEXOXY",,
O=Cc1ccc([N+](=O)[O-])cc1[N+](=O)[O-],"BENZALDEHYDE, 2,4-DINITRO",,
O=Cc1cccc([N+](=O)[O-])c1,"BENZALDEHYDE, 3-NITRO",,
CN(C)c1ccc(C=O)cc1,"BENZALDEHYDE, 4(DIMETHYLAMINO)",,
O=Cc1ccccc1,BENZALDEHYDE,656.3366667,
Clc1ccc(Cl)c(Cl)c1,"BENZENE, 1,2,4-TRICHLORO",690.2255556,
O=C(Oc1ccccc1OC(=O)c1ccccc1)c1ccccc1,"BENZENE, 1,2-DIHYDROXY, DIBENZOATE",,
CCCC(=O)Oc1ccccc1OC(=O)CCC,"BENZENE, 1,2-DIHYDROXY, DIBUTYRATE",,
Cc1ccccc1C,"BENZENE, 1,2-DIMETHYL",417.65,
c1ccc(-c2ccccc2-c2ccccc2)cc1,"BENZENE, 1,2-DIPHENYL",809.67,
O=[N+]([O-])c1cc([N+](=O)[O-])cc([N+](=O)[O-])c1,"BENZENE, 1,3,5-TRINITRO",588.15,
Nc1cccc(N)c1,"BENZENE, 1,3-DIAMINO",558.15,
COc1cccc(OC)c1,"BENZENE, 1,3-DIMETHOXY",490.65,
Cc1cccc(C)c1,"BENZENE, 1,3-DIMETHYL",616.5588889,
COc1c([N+](=O)[O-])cc(C(F)(F)F)cc1[N+](=O)[O-],"BENZENE, 1,3-DINITRO, 2-METHOXY, 5-(TRIFLUOROMETHYL)",,
c1ccc(-c2cccc(-c3ccccc3)c2)cc1,"BENZENE, 1,3-DIPHENYL",842.4477778,
Cc1ccc(C)cc1,"BENZENE, 1,4-DIMETHYL",615.7255556,
O=[N+]([O-])c1cccc(OC(F)F)c1,"BENZENE, 1-(DIFLUOROMETHOXY), 3-NITRO",,
O=[N+]([O-])c1ccc(OC(F)F)cc1,"BENZENE, 1-(DIFLUOROMETHOXY), 4-NITRO",,
Nc1ccccc1S,"BENZENE, 1-AMINO, 2-MERCAPTO",507.15,
Cc1cc(C)cc(N)c1,"BENZENE, 1-AMINO, 3,5-DIMETHYL",493.65,
Fc1ccc(Br)cc1,"BENZENE, 1-BROMO, 4-FLUORO",629.67,"306 °F at 764 mmHg (NTP, 1992)"
COc1ccc(Br)cc1,"BENZENE, 1-BROMO, 4-METHOXY",488.15,
O=[N+]([O-])c1ccc(Cl)c([N+](=O)[O-])c1,"BENZENE, 1-CHLORO, 2,4-DINITRO",588.15,
O=[N+]([O-])c1ccccc1Cl,"BENZENE, 1-CHLORO-2-NITRO",723.5588889,
CCc1ccccc1[N+](=O)[O-],"BENZENE, 1-ETHYL, 2-NITRO",505.65,
CCc1ccc([N+](=O)[O-])cc1,"BENZENE, 1-ETHYL, 4-NITRO",518.65,
O=[N+]([O-])c1ccc(F)c([N+](=O)[O-])c1,"BENZENE, 1-FLUORO, 2,4-DINITRO",773.5588889,
COc1ccccc1F,"BENZENE, 1-FLUORO, 2-METHOXY",427.65,
O=[N+]([O-])c1ccccc1F,"BENZENE, 1-FLUORO, 2-NITRO",,
O=[N+]([O-])c1cccc(F)c1,"BENZENE, 1-FLUORO, 3-NITRO",472.15,
O=[N+]([O-])c1ccc(F)cc1,"BENZENE, 1-FLUORO, 4-NITRO",478.15,
COc1ccc(C(F)(F)F)cc1[N+](=O)[O-],"BENZENE, 1-METHOXY, 2-NITRO, 4-(TRIFLUOROMETHYL)",,
COc1cccc([N+](=O)[O-])c1,"BENZENE, 1-METHOXY, 3-NITRO",531.15,
Cc1ccccc1[N+](=O)[O-],"BENZENE, 1-METHYL-2-NITRO",699.17,
Cc1ccc([N+](=O)[O-])cc1,"BENZENE, 1-METHYL-4-NITRO",715.7255556,
O=[N+]([O-])c1cccc(SC(F)(F)F)c1,"BENZENE, 1-NITRO, 3-[ (TRIFLUOROMETHYL) THIO]",,
O=[N+]([O-])c1ccc(SC(F)(F)F)cc1,"BENZENE, 1-NITRO, 4-[ (TRIFLUOROMETHYL) THIO]",,
O=[N+]([O-])c1ccccc1SC(F)F,"BENZENE, 1-[(DIFLUOROMETHYL)THIO], 2-NITRO",,
O=[N+]([O-])c1ccc(SC(F)F)cc1,"BENZENE, 1-[(DIFLUOROMETHYL)THIO], 4-NITRO",,
O=[N+]([O-])c1ccc(F)cc1F,"BENZENE, 2,4-DIFLUORO, 1-NITRO",480.15,
CCc1c([N+](=O)[O-])cc([N+](=O)[O-])cc1[N+](=O)[O-],"BENZENE, 2-ETHYL, 1,3,5-TRINITRO",,
Cc1cc(C)c([N+](=O)[O-])c(C)c1,"BENZENE, 2-NITRO, 1,3,5-TRIMETHYL",528.15,
O=[N+]([O-])c1cc(C(F)(F)F)ccc1C(F)(F)F,"BENZENE, 2-NITRO, 1,4-BIS(TRIFLUOROMETHYL)",,
O=[N+]([O-])c1c(F)ccc(F)c1F,"BENZENE, 3-NITRO, 1,2,4-TRIFLUORO",,
COc1ccc(F)cc1[N+](=O)[O-],"BENZENE, 4-FLUORO, 1-METHOXY, 2-NITRO",,
O=[N+]([O-])c1c(F)cc(F)c(F)c1F,"BENZENE, 4-NITRO, 1,2,3,5-TETRAFLUORO",,
Brc1ccccc1,"BENZENE, BROMO",633.5588889,
ClCc1ccccc1,"BENZENE, CHLOROMETHYL",656.3366667,
Clc1ccccc1,"BENZENE, CHLORO",609.67,
c1ccc(C2CCCCC2)cc1,"BENZENE, CYCLOHEXYL",513.25,
CCOc1c(F)c(F)c(F)c(F)c1F,"BENZENE, ETHOXY, 2,3,4,5,6-PENTAFLUORO",,
CCOc1ccccc1,"BENZENE, ETHOXY",442.95,
CCc1ccccc1,"BENZENE, ETHYL",613.67,
Fc1ccccc1,"BENZENE, FLUORO",562.5588889,
CCCCCCc1ccccc1,"BENZENE, HEXYL",499.25,
Ic1ccccc1,"BENZENE, IODO",461.55,
CC(C)c1ccccc1,"BENZENE, ISOPROPYL",629.8366667,
COc1c(F)c(F)c(F)c(F)c1F,"BENZENE, METHOXY, 2,3,4,5,6-PENTAFLUORO",411.65,
COc1ccccc1,"BENZENE, METHOXY",426.85,
O=[N+]([O-])c1c(F)c(F)c(F)c(F)c1F,"BENZENE, NITRO, 2,3,4,5,6-PENTAFLUORO",432.65,
O=[N+]([O-])c1ccccc1,"BENZENE, NITRO",688.2255556,
CCCCCCCCCCCCCCCCCCc1ccccc1,"BENZENE, OCTADECYL",681.15,
CCCCCCCCc1ccccc1,"BENZENE, OCTYL",537.65,
Fc1c(F)c(F)c(F)c(F)c1F,"BENZENE, PERFLUORO",353.35,
FC(F)(F)c1ccccc1,"BENZENE, TRIFLUOROMETHYL",375.25,
CC(C)NS(=O)(=O)c1ccccc1,"BENZENESULFONIC ACID, N-ISOPROPYL, AMIDE",,
O=S(=O)(Oc1ccccc1)C(F)(F)F,"BENZENESULFONIC ACID, TRIFLUOROMETHYL ESTER",,
c1ccccc1,BENZENE,557.5588889,
COC(=O)c1ccccc1O,"BENZOIC ACID, 2-HYDROXY-, METHYL ESTER",699.67,
CCCCNC(=O)c1ccccc1,"BENZOIC ACID, AMIDE, N-BUTYL",,
CCCCCNC(=O)c1ccccc1,"BENZOIC ACID, AMIDE, N-PENTYL",,
CCOC(=O)c1ccccc1,"BENZOIC ACID, ETHYL ESTER",485.15,
COC(=O)c1ccccc1,"BENZOIC ACID, METHYL ESTER",472.15,
N#Cc1ccccc1,"BENZOIC ACID, NITRILE",668.17,
N#Cc1c(F)c(F)c(F)c(F)c1F,"BENZOIC ACID, PENTAFLUORO, NITRILE",435.15,
N#Cc1cccc(C(F)(F)F)c1,"BENZONITRILE, 3-(TRIFLUOROMETHYL)",462.15,
O=C(c1ccccc1)c1ccccc1,BENZOPHENONE,783.3366667,
OCc1ccccc1,BENZYL ALCOHOL,682.4477778,
C=C1CCC2CC1C2(C)C,BETA-PINENE,439.15,
C1CCC(C2CCCCC2)CC1,BICYCLOHEXYL,511.15,
Cc1ccc(-c2ccc(C)cc2)cc1,"BIPHENYL, 4,4'-DIMETHYL",,
CCCCCCCOc1ccc(-c2ccc(C#N)cc2)cc1,"BIPHENYL, 4-CARBONITRILE, 4'-(HEPTYLOXY)",,
CCCCCCOc1ccc(-c2ccc(C#N)cc2)cc1,"BIPHENYL, 4-CARBONITRILE, 4'-(HEXYLOXY)",,
CCCCCCCCOc1ccc(-c2ccc(C#N)cc2)cc1,"BIPHENYL, 4-CARBONITRILE, 4'-(OCTYLOXY)",,
CCCCCOc1ccc(-c2ccc(C#N)cc2)cc1,"BIPHENYL, 4-CARBONITRILE, 4'-(PENTYLOXY)",,
c1ccc(Cc2ccccc2-c2ccccc2)cc1,"BIPHENYL, BENZYL",,
c1ccc(-c2ccccc2)cc1,BIPHENYL,529.25,
CCCC=O,BUTANAL,552.4477778,
CCCCN(CCCC)C(=O)C(C)(C)CC,"BUTANAMIDE, N,N-DIBUTYL, 2,2-DIMETHYL",,
FCC(F)(F)C(F)(F)C(F)(F)F,"BUTANE, 1,1,1,2,2,3,3,4-OCTAFLUORO",,
C1CCC(CCCCC2CCCC2)C1,"BUTANE, 1,4-DICYCLOPENTYL",,
CCCCN,"BUTANE, 1-AMINO",555.4477778,
CCCCCl,"BUTANE, 1-CHLORO",555.9477778,
CC(C)C(C)(C)C,"BUTANE, 2,2,3-TRIMETHYL",353.95,
CCC(C)(C)C,"BUTANE, 2,2-DIMETHYL",527.17,
CC(C)C(C)C,"BUTANE, 2,3-DIMETHYL",535.4477778,
CCC(C)C,"BUTANE, 2-METHYL",505.2255556,
CCCC,BUTANE,476.9477778,
CC(=O)C1CCOC1=O,"BUTANOIC ACID, 2-ACETYL, 4-HYDROXY, GAMMA-LACTONE",,
O=C1OCCC1Br,"BUTANOIC ACID, 2-BROMO, 4-HYDROXY, GAMMA-LACTONE",,
CC(=O)CC#N,"BUTANOIC ACID, 3-OXO, NITRILE",,
COC(=O)CC(C)=O,"BUTANOIC ACID, 3-OXO-, METHYL ESTER",444.85,
O=C1CCCO1,"BUTANOIC ACID, 4-HYDROXY, LACTONE",477.15,
CCCC(=O)OCC,"BUTANOIC ACID, ETHYL ESTER",598.5588889,
CCCC#N,"BUTANOIC ACID, NITRILE",595.2255556,
COC(=O)N(C)C,"CARBAMIC ACID, N,N-DIMETHYL, METHYL ESTER",,
S=C=S,CARBON DISULFIDE,524.1144444,
COC(=O)OC,"CARBONIC ACID, DIMETHYL ESTER",363.65,
CCCCOC(=O)CC(CC(=O)OCCCC)(OC(C)=O)C(=O)OCCCC,"CITRIC ACID, TRIBUTYL ESTER.ACETATE",604.15,331 °C at 732 mm Hg
OC1CCCCCC1,CYCLOHEPTANOL,458.15,
C=C(C)C1CCCC(C)C1,"CYCLOHEXANE, 1-METHYL-3-(1-METHYLETHENYL)",,
CC(=O)C1=CCCCC1,"CYCLOHEXANE, ACETYL",474.65,
NC1CCCCC1,"CYCLOHEXANE, AMINO",611.9477778,
BrC1CCCCC1,"CYCLOHEXANE, BROMO",439.35,
CCCCC1CCCCC1,"CYCLOHEXANE, BUTYL",454.05,
ClC1CCCCC1,"CYCLOHEXANE, CHLORO",415.15,
N#CC1CCCCC1,"CYCLOHEXANE, CYANO",,
CCCCCCCCCCC1CCCCC1,"CYCLOHEXANE, DECYL",572.15,
CC1CCCCC1,"CYCLOHEXANE, METHYL",578.4477778,
O=[N+]([O-])C1CCCCC1,"CYCLOHEXANE, NITRO",682.9477778,"401.9 °F at 768 mmHg (EPA, 1998)"
CCCCCCCCCCCCCCCCCCC1CCCCC1,"CYCLOHEXANE, OCTADECYL",682.15,
CCCCCCCCCCCCCCC1CCCCC1,"CYCLOHEXANE, TETRADECYL",633.15,
O=CC1CCCCC1,CYCLOHEXANECARBOXALDEHYDE,432.45,
COC(=O)C1CCCCC1,"CYCLOHEXANECARBOXYLIC ACID, METHYL ESTER",456.15,
C1CCCCC1,CYCLOHEXANE,558.17,
OC1CCCCC1,CYCLOHEXANOL,638.5588889,
O=C1CCCCC1,CYCLOHEXANONE,633.0588889,
C[Si]1(C)O[Si](C)(C)O[Si](C)(C)O[Si](C)(C)O[Si](C)(C)O[Si](C)(C)O1,"CYCLOHEXASILOXANE, DODECAMETHYL",518.15,
O=[N+]([O-])C1CC=CCC1,"CYCLOHEXENE, 4-NITRO",,
C1=CCCCC1,CYCLOHEXENE,560.2255556,
C1CCCCCCC1,CYCLOOCTANE,422.15,
CC1CCCC1c1ccccc1,"CYCLOPENTANE, 1-METHYL, 2-PHENYL",,
CCCCC1CCCC1,"CYCLOPENTANE, BUTYL",429.75,
CCC1CCCC1,"CYCLOPENTANE, ETHYL",376.65,
CCCCCCC1CCCC1,"CYCLOPENTANE, HEXYL",476.15,
CC(C)C1CCCC1,"CYCLOPENTANE, ISOPROPYL",399.65,
CC1CCCC1,"CYCLOPENTANE, METHYL",549.2255556,
C1CCCC1,CYCLOPENTANE,526.7255556,
OC1CCCC1,CYCLOPENTANOL,413.55,
O=C1CCCC1,CYCLOPENTANONE,608.0977778,
CC1C=CCC1,"CYCLOPENTENE, 3-METHYL",338.05,
C[Si]1(C)O[Si](C)(C)O[Si](C)(C)O[Si](C)(C)O1,"CYCLOTETRASILOXANE, OCTAMETHYL",448.95,
C1CC[C@H]2CCCC[C@H]2C1,DECALIN(CIS),672.4477778,
C1CC[C@H]2CCCC[C@@H]2C1,DECALIN(TRANS),672.4477778,
CCCCCCCCCCc1ccccc1,"DECANE, 1-PHENYL",777.4477778,
CCCCC(CC)COC(=O)CCCCCCCCC(=O)OCC(CC)CCCC,"DECANEDIOIC ACID, DI(2-ETHYLHEXYL) ESTER",725.2255556,"478 °F at 4 mmHg (NTP, 1992)"
CCCCOC(=O)CCCCCCCCC(=O)OCCCC,"DECANEDIOIC ACID, DIBUTYL ESTER",617.65,